LAMMPS (2 Apr 2025 - Development - patch_2Apr2025-232-g440e24c60e)
OMP_NUM_THREADS environment is not set. Defaulting to 1 thread. (src/comm.cpp:99)
  using 1 OpenMP thread(s) per MPI task
# 基本设置
units           metal
atom_style      atomic
boundary        f f f

# 构建模拟区域
lattice         fcc 3.615
Lattice spacing in x,y,z = 3.615 3.615 3.615
region          box block 0 10 0 10 0 10
create_box      1 box
Created orthogonal box = (0 0 0) to (36.15 36.15 36.15)
  1 by 1 by 1 MPI processor grid

# 定义 EAM 势函数（使用 Cu_u3.eam）
pair_style      eam/alloy
pair_coeff      * * /home/wuwen/lammps/potentials/Cu_mishin1.eam.alloy Cu
Reading eam/alloy potential file /home/wuwen/lammps/potentials/Cu_mishin1.eam.alloy with DATE: 2007-10-12


# 设置原子质量（铜）
mass            1 63.546

# 创建墙体（下方刚性区域）
region          wall block 0 10 0 10 0 2
create_atoms    1 region wall
Created 1000 atoms
  using lattice units in orthogonal box = (0 0 0) to (36.15 36.15 36.15)
  create_atoms CPU = 0.001 seconds
group           wall_atoms region wall
1000 atoms in group wall_atoms
fix             freeze wall_atoms setforce 0.0 0.0 0.0

# 创建投射粒子（上方）
create_atoms    1 single 5 5 5
Created 1 atoms
  using lattice units in orthogonal box = (0 0 0) to (36.15 36.15 36.15)
  create_atoms CPU = 0.000 seconds
group           projectile id 1001  # 假设它是第1001号原子
1 atoms in group projectile
velocity        projectile set 0.0 0.0 -1 units box

# 设置时间步长与积分器
timestep        0.001
fix             int projectile nve

# 热力学输出
thermo          100
thermo_style    custom step temp pe ke etotal

# 轨迹输出（两个格式：LAMMPS 和 OVITO 都可用）
dump            traj all custom 100 traj.lammpstrj id type x y z vx vy vz
dump            gb all custom 100 dump.gb id type x y z vx vy vz

# 运行模拟
run             10000
Neighbor list info ...
  update: every = 1 steps, delay = 0 steps, check = yes
  max neighbors/atom: 2000, page size: 100000
  master list distance cutoff = 7.50679
  ghost atom cutoff = 7.50679
  binsize = 3.753395, bins = 10 10 10
  1 neighbor lists, perpetual/occasional/extra = 1 0 0
  (1) pair eam/alloy, perpetual
      attributes: half, newton on
      pair build: half/bin/atomonly/newton
      stencil: half/bin/3d
      bin: standard
Per MPI rank memory allocation (min/avg/max) = 3.303 | 3.303 | 3.303 Mbytes
   Step          Temp          PotEng         KinEng         TotEng    
         0   0.02547606    -3204.7073      0.0032930392  -3204.704     
       100   0.02547606    -3204.7073      0.0032930392  -3204.704     
       200   0.02547606    -3204.7073      0.0032930392  -3204.704     
       300   0.02547606    -3204.7073      0.0032930392  -3204.704     
       400   0.02547606    -3204.7073      0.0032930392  -3204.704     
       500   0.02547606    -3204.7073      0.0032930392  -3204.704     
       600   0.02547606    -3204.7073      0.0032930392  -3204.704     
       700   0.02547606    -3204.7073      0.0032930392  -3204.704     
       800   0.02547606    -3204.7073      0.0032930392  -3204.704     
       900   0.02547606    -3204.7073      0.0032930392  -3204.704     
      1000   0.02547606    -3204.7073      0.0032930392  -3204.704     
      1100   0.02547606    -3204.7073      0.0032930392  -3204.704     
      1200   0.02547606    -3204.7073      0.0032930392  -3204.704     
      1300   0.02547606    -3204.7073      0.0032930392  -3204.704     
      1400   0.02547606    -3204.7073      0.0032930392  -3204.704     
      1500   0.02547606    -3204.7073      0.0032930392  -3204.704     
      1600   0.02547606    -3204.7073      0.0032930392  -3204.704     
      1700   0.02547606    -3204.7073      0.0032930392  -3204.704     
      1800   0.02547606    -3204.7073      0.0032930392  -3204.704     
      1900   0.02547606    -3204.7073      0.0032930392  -3204.704     
      2000   0.02547606    -3204.7073      0.0032930392  -3204.704     
      2100   0.02547606    -3204.7073      0.0032930392  -3204.704     
      2200   0.02547606    -3204.7073      0.0032930392  -3204.704     
      2300   0.02547606    -3204.7073      0.0032930392  -3204.704     
      2400   0.02547606    -3204.7073      0.0032930392  -3204.704     
      2500   0.02547606    -3204.7073      0.0032930392  -3204.704     
      2600   0.02547606    -3204.7073      0.0032930392  -3204.704     
      2700   0.02547606    -3204.7073      0.0032930392  -3204.704     
      2800   0.02547606    -3204.7073      0.0032930392  -3204.704     
      2900   0.02547606    -3204.7073      0.0032930392  -3204.704     
      3000   0.02547606    -3204.7073      0.0032930392  -3204.704     
      3100   0.02547606    -3204.7073      0.0032930392  -3204.704     
      3200   0.02547606    -3204.7073      0.0032930392  -3204.704     
      3300   0.02547606    -3204.7073      0.0032930392  -3204.704     
      3400   0.02547606    -3204.7073      0.0032930392  -3204.704     
      3500   0.02547606    -3204.7073      0.0032930392  -3204.704     
      3600   0.02547606    -3204.7073      0.0032930392  -3204.704     
      3700   0.02547606    -3204.7073      0.0032930392  -3204.704     
      3800   0.02547606    -3204.7073      0.0032930392  -3204.704     
      3900   0.02547606    -3204.7073      0.0032930392  -3204.704     
      4000   0.02547606    -3204.7073      0.0032930392  -3204.704     
      4100   0.02547606    -3204.7073      0.0032930392  -3204.704     
      4200   0.02547606    -3204.7073      0.0032930392  -3204.704     
      4300   0.02547606    -3204.7073      0.0032930392  -3204.704     
      4400   0.02547606    -3204.7073      0.0032930392  -3204.704     
      4500   0.02547606    -3204.7073      0.0032930392  -3204.704     
      4600   0.02547606    -3204.7073      0.0032930392  -3204.704     
      4700   0.02547606    -3204.7073      0.0032930392  -3204.704     
      4800   0.02547606    -3204.7073      0.0032930392  -3204.704     
      4900   0.02547606    -3204.7073      0.0032930392  -3204.704     
      5000   0.02547606    -3204.7073      0.0032930392  -3204.704     
      5100   0.02547606    -3204.7073      0.0032930392  -3204.704     
      5200   0.02547606    -3204.7073      0.0032930392  -3204.704     
      5300   0.02547606    -3204.7073      0.0032930392  -3204.704     
      5400   0.025468992   -3204.7073      0.0032921256  -3204.704     
      5500   0.025234191   -3204.7073      0.0032617752  -3204.704     
      5600   0.02459872    -3204.7072      0.0031796341  -3204.704     
      5700   0.025256114   -3204.7073      0.0032646089  -3204.704     
      5800   0.031526244   -3204.7081      0.0040750868  -3204.704     
      5900   0.04996312    -3204.7105      0.0064582401  -3204.704     
      6000   0.090379561   -3204.7157      0.011682475   -3204.704     
      6100   0.17085916    -3204.7261      0.02208528    -3204.704     
      6200   0.48422211    -3204.7666      0.06259062    -3204.704     
      6300   2.4003144     -3205.0143      0.31026499    -3204.704     
      6400   5.6635396     -3205.4365      0.73206995    -3204.7044    
      6500   3.5805097     -3205.1668      0.46281721    -3204.704     
      6600   0.63482774    -3204.7861      0.082057926   -3204.704     
      6700   0.19772686    -3204.7296      0.025558203   -3204.704     
      6800   0.10168636    -3204.7172      0.013143994   -3204.704     
      6900   0.055605813   -3204.7112      0.0071876155  -3204.704     
      7000   0.033864902   -3204.7084      0.0043773822  -3204.704     
      7100   0.025851105   -3204.7074      0.0033415175  -3204.704     
      7200   0.024524562   -3204.7072      0.0031700485  -3204.704     
      7300   0.025129318   -3204.7073      0.0032482193  -3204.704     
      7400   0.025456081   -3204.7073      0.0032904568  -3204.704     
      7500   0.025475882   -3204.7073      0.0032930162  -3204.704     
      7600   0.025475882   -3204.7073      0.0032930162  -3204.704     
      7700   0.025475882   -3204.7073      0.0032930162  -3204.704     
      7800   0.025475882   -3204.7073      0.0032930162  -3204.704     
      7900   0.025475882   -3204.7073      0.0032930162  -3204.704     
      8000   0.025475882   -3204.7073      0.0032930162  -3204.704     
      8100   0.025475882   -3204.7073      0.0032930162  -3204.704     
      8200   0.025475882   -3204.7073      0.0032930162  -3204.704     
      8300   0.025475882   -3204.7073      0.0032930162  -3204.704     
      8400   0.025475882   -3204.7073      0.0032930162  -3204.704     
      8500   0.025475882   -3204.7073      0.0032930162  -3204.704     
      8600   0.025475882   -3204.7073      0.0032930162  -3204.704     
      8700   0.025475882   -3204.7073      0.0032930162  -3204.704     
      8800   0.025475882   -3204.7073      0.0032930162  -3204.704     
      8900   0.025475882   -3204.7073      0.0032930162  -3204.704     
      9000   0.025475882   -3204.7073      0.0032930162  -3204.704     
      9100   0.025475882   -3204.7073      0.0032930162  -3204.704     
      9200   0.025475882   -3204.7073      0.0032930162  -3204.704     
      9300   0.025475882   -3204.7073      0.0032930162  -3204.704     
      9400   0.025475882   -3204.7073      0.0032930162  -3204.704     
      9500   0.025475882   -3204.7073      0.0032930162  -3204.704     
      9600   0.025475882   -3204.7073      0.0032930162  -3204.704     
      9700   0.025475882   -3204.7073      0.0032930162  -3204.704     
      9800   0.025475882   -3204.7073      0.0032930162  -3204.704     
      9900   0.025475882   -3204.7073      0.0032930162  -3204.704     
     10000   0.025475882   -3204.7073      0.0032930162  -3204.704     
Loop time of 9.60036 on 1 procs for 10000 steps with 1001 atoms

Performance: 89.997 ns/day, 0.267 hours/ns, 1041.628 timesteps/s, 1.043 Matom-step/s
99.9% CPU use with 1 MPI tasks x 1 OpenMP threads

MPI task timing breakdown:
Section |  min time  |  avg time  |  max time  |%varavg| %total
---------------------------------------------------------------
Pair    | 9.2508     | 9.2508     | 9.2508     |   0.0 | 96.36
Neigh   | 0.011017   | 0.011017   | 0.011017   |   0.0 |  0.11
Comm    | 0.0011632  | 0.0011632  | 0.0011632  |   0.0 |  0.01
Output  | 0.266      | 0.266      | 0.266      |   0.0 |  2.77
Modify  | 0.049488   | 0.049488   | 0.049488   |   0.0 |  0.52
Other   |            | 0.02188    |            |       |  0.23

Nlocal:           1001 ave        1001 max        1001 min
Histogram: 1 0 0 0 0 0 0 0 0 0
Nghost:              0 ave           0 max           0 min
Histogram: 1 0 0 0 0 0 0 0 0 0
Neighs:          41385 ave       41385 max       41385 min
Histogram: 1 0 0 0 0 0 0 0 0 0

Total # of neighbors = 41385
Ave neighs/atom = 41.343656
Neighbor list builds = 15
Dangerous builds = 0

# 保存最终状态
write_data      final.data
System init for write_data ...
write_restart   final.restart
System init for write_restart ...
Total wall time: 0:00:09
